VARIABLES  = "X","Y","Z", "PRESSURE1", "SATURATION1"
ZONE T="0.000000000000e+00s", N=101, E=100, F=FEPOINT, ET=QUADRILATERAL
STRANDID=1, SOLUTIONTIME=0.000000000000e+00
0.000000000000e+00 0.000000000000e+00 0.000000000000e+00 -1.500000000000e+04 5.225999598040e-01 
0.000000000000e+00 1.000000000000e+00 0.000000000000e+00 -1.500000000000e+04 5.225999598040e-01 
0.000000000000e+00 1.000000000000e-02 0.000000000000e+00 -1.500000000000e+04 5.225999598040e-01 
0.000000000000e+00 2.000000000000e-02 0.000000000000e+00 -1.500000000000e+04 5.225999598040e-01 
0.000000000000e+00 3.000000000000e-02 0.000000000000e+00 -1.500000000000e+04 5.225999598040e-01 
0.000000000000e+00 4.000000000000e-02 0.000000000000e+00 -1.500000000000e+04 5.225999598040e-01 
0.000000000000e+00 5.000000000000e-02 0.000000000000e+00 -1.500000000000e+04 5.225999598040e-01 
0.000000000000e+00 6.000000000000e-02 0.000000000000e+00 -1.500000000000e+04 5.225999598040e-01 
0.000000000000e+00 7.000000000000e-02 0.000000000000e+00 -1.500000000000e+04 5.225999598040e-01 
0.000000000000e+00 8.000000000000e-02 0.000000000000e+00 -1.500000000000e+04 5.225999598040e-01 
0.000000000000e+00 9.000000000000e-02 0.000000000000e+00 -1.500000000000e+04 5.225999598040e-01 
0.000000000000e+00 1.000000000000e-01 0.000000000000e+00 -1.500000000000e+04 5.225999598040e-01 
0.000000000000e+00 1.100000000000e-01 0.000000000000e+00 -1.500000000000e+04 5.225999598040e-01 
0.000000000000e+00 1.200000000000e-01 0.000000000000e+00 -1.500000000000e+04 5.225999598040e-01 
0.000000000000e+00 1.300000000000e-01 0.000000000000e+00 -1.500000000000e+04 5.225999598040e-01 
0.000000000000e+00 1.400000000000e-01 0.000000000000e+00 -1.500000000000e+04 5.225999598040e-01 
0.000000000000e+00 1.500000000000e-01 0.000000000000e+00 -1.500000000000e+04 5.225999598040e-01 
0.000000000000e+00 1.600000000000e-01 0.000000000000e+00 -1.500000000000e+04 5.225999598040e-01 
0.000000000000e+00 1.700000000000e-01 0.000000000000e+00 -1.500000000000e+04 5.225999598040e-01 
0.000000000000e+00 1.800000000000e-01 0.000000000000e+00 -1.500000000000e+04 5.225999598040e-01 
0.000000000000e+00 1.900000000000e-01 0.000000000000e+00 -1.500000000000e+04 5.225999598040e-01 
0.000000000000e+00 2.000000000000e-01 0.000000000000e+00 -1.500000000000e+04 5.225999598040e-01 
0.000000000000e+00 2.100000000000e-01 0.000000000000e+00 -1.500000000000e+04 5.225999598040e-01 
0.000000000000e+00 2.200000000000e-01 0.000000000000e+00 -1.500000000000e+04 5.225999598040e-01 
0.000000000000e+00 2.300000000000e-01 0.000000000000e+00 -1.500000000000e+04 5.225999598040e-01 
0.000000000000e+00 2.400000000000e-01 0.000000000000e+00 -1.500000000000e+04 5.225999598040e-01 
0.000000000000e+00 2.500000000000e-01 0.000000000000e+00 -1.500000000000e+04 5.225999598040e-01 
0.000000000000e+00 2.600000000000e-01 0.000000000000e+00 -1.500000000000e+04 5.225999598040e-01 
0.000000000000e+00 2.700000000000e-01 0.000000000000e+00 -1.500000000000e+04 5.225999598040e-01 
0.000000000000e+00 2.800000000000e-01 0.000000000000e+00 -1.500000000000e+04 5.225999598040e-01 
0.000000000000e+00 2.900000000000e-01 0.000000000000e+00 -1.500000000000e+04 5.225999598040e-01 
0.000000000000e+00 3.000000000000e-01 0.000000000000e+00 -1.500000000000e+04 5.225999598040e-01 
0.000000000000e+00 3.100000000000e-01 0.000000000000e+00 -1.500000000000e+04 5.225999598040e-01 
0.000000000000e+00 3.200000000000e-01 0.000000000000e+00 -1.500000000000e+04 5.225999598040e-01 
0.000000000000e+00 3.300000000000e-01 0.000000000000e+00 -1.500000000000e+04 5.225999598040e-01 
0.000000000000e+00 3.400000000000e-01 0.000000000000e+00 -1.500000000000e+04 5.225999598040e-01 
0.000000000000e+00 3.500000000000e-01 0.000000000000e+00 -1.500000000000e+04 5.225999598040e-01 
0.000000000000e+00 3.600000000000e-01 0.000000000000e+00 -1.500000000000e+04 5.225999598040e-01 
0.000000000000e+00 3.700000000000e-01 0.000000000000e+00 -1.500000000000e+04 5.225999598040e-01 
0.000000000000e+00 3.800000000000e-01 0.000000000000e+00 -1.500000000000e+04 5.225999598040e-01 
0.000000000000e+00 3.900000000000e-01 0.000000000000e+00 -1.500000000000e+04 5.225999598040e-01 
0.000000000000e+00 4.000000000000e-01 0.000000000000e+00 -1.500000000000e+04 5.225999598040e-01 
0.000000000000e+00 4.100000000000e-01 0.000000000000e+00 -1.500000000000e+04 5.225999598040e-01 
0.000000000000e+00 4.200000000000e-01 0.000000000000e+00 -1.500000000000e+04 5.225999598040e-01 
0.000000000000e+00 4.300000000000e-01 0.000000000000e+00 -1.500000000000e+04 5.225999598040e-01 
0.000000000000e+00 4.400000000000e-01 0.000000000000e+00 -1.500000000000e+04 5.225999598040e-01 
0.000000000000e+00 4.500000000000e-01 0.000000000000e+00 -1.500000000000e+04 5.225999598040e-01 
0.000000000000e+00 4.600000000000e-01 0.000000000000e+00 -1.500000000000e+04 5.225999598040e-01 
0.000000000000e+00 4.700000000000e-01 0.000000000000e+00 -1.500000000000e+04 5.225999598040e-01 
0.000000000000e+00 4.800000000000e-01 0.000000000000e+00 -1.500000000000e+04 5.225999598040e-01 
0.000000000000e+00 4.900000000000e-01 0.000000000000e+00 -1.500000000000e+04 5.225999598040e-01 
0.000000000000e+00 5.000000000000e-01 0.000000000000e+00 -1.500000000000e+04 5.225999598040e-01 
0.000000000000e+00 5.100000000000e-01 0.000000000000e+00 -1.500000000000e+04 5.225999598040e-01 
0.000000000000e+00 5.200000000000e-01 0.000000000000e+00 -1.500000000000e+04 5.225999598040e-01 
0.000000000000e+00 5.300000000000e-01 0.000000000000e+00 -1.500000000000e+04 5.225999598040e-01 
0.000000000000e+00 5.400000000000e-01 0.000000000000e+00 -1.500000000000e+04 5.225999598040e-01 
0.000000000000e+00 5.500000000000e-01 0.000000000000e+00 -1.500000000000e+04 5.225999598040e-01 
0.000000000000e+00 5.600000000000e-01 0.000000000000e+00 -1.500000000000e+04 5.225999598040e-01 
0.000000000000e+00 5.700000000000e-01 0.000000000000e+00 -1.500000000000e+04 5.225999598040e-01 
0.000000000000e+00 5.800000000000e-01 0.000000000000e+00 -1.500000000000e+04 5.225999598040e-01 
0.000000000000e+00 5.900000000000e-01 0.000000000000e+00 -1.500000000000e+04 5.225999598040e-01 
0.000000000000e+00 6.000000000000e-01 0.000000000000e+00 -1.500000000000e+04 5.225999598040e-01 
0.000000000000e+00 6.100000000000e-01 0.000000000000e+00 -1.500000000000e+04 5.225999598040e-01 
0.000000000000e+00 6.200000000000e-01 0.000000000000e+00 -1.500000000000e+04 5.225999598040e-01 
0.000000000000e+00 6.300000000000e-01 0.000000000000e+00 -1.500000000000e+04 5.225999598040e-01 
0.000000000000e+00 6.400000000000e-01 0.000000000000e+00 -1.500000000000e+04 5.225999598040e-01 
0.000000000000e+00 6.500000000000e-01 0.000000000000e+00 -1.500000000000e+04 5.225999598040e-01 
0.000000000000e+00 6.600000000000e-01 0.000000000000e+00 -1.500000000000e+04 5.225999598040e-01 
0.000000000000e+00 6.700000000000e-01 0.000000000000e+00 -1.500000000000e+04 5.225999598040e-01 
0.000000000000e+00 6.800000000000e-01 0.000000000000e+00 -1.500000000000e+04 5.225999598040e-01 
0.000000000000e+00 6.900000000000e-01 0.000000000000e+00 -1.500000000000e+04 5.225999598040e-01 
0.000000000000e+00 7.000000000000e-01 0.000000000000e+00 -1.500000000000e+04 5.225999598040e-01 
0.000000000000e+00 7.100000000000e-01 0.000000000000e+00 -1.500000000000e+04 5.225999598040e-01 
0.000000000000e+00 7.200000000000e-01 0.000000000000e+00 -1.500000000000e+04 5.225999598040e-01 
0.000000000000e+00 7.300000000000e-01 0.000000000000e+00 -1.500000000000e+04 5.225999598040e-01 
0.000000000000e+00 7.400000000000e-01 0.000000000000e+00 -1.500000000000e+04 5.225999598040e-01 
0.000000000000e+00 7.500000000000e-01 0.000000000000e+00 -1.500000000000e+04 5.225999598040e-01 
0.000000000000e+00 7.600000000000e-01 0.000000000000e+00 -1.500000000000e+04 5.225999598040e-01 
0.000000000000e+00 7.700000000000e-01 0.000000000000e+00 -1.500000000000e+04 5.225999598040e-01 
0.000000000000e+00 7.800000000000e-01 0.000000000000e+00 -1.500000000000e+04 5.225999598040e-01 
0.000000000000e+00 7.900000000000e-01 0.000000000000e+00 -1.500000000000e+04 5.225999598040e-01 
0.000000000000e+00 8.000000000000e-01 0.000000000000e+00 -1.500000000000e+04 5.225999598040e-01 
0.000000000000e+00 8.100000000000e-01 0.000000000000e+00 -1.500000000000e+04 5.225999598040e-01 
0.000000000000e+00 8.200000000000e-01 0.000000000000e+00 -1.500000000000e+04 5.225999598040e-01 
0.000000000000e+00 8.300000000000e-01 0.000000000000e+00 -1.500000000000e+04 5.225999598040e-01 
0.000000000000e+00 8.400000000000e-01 0.000000000000e+00 -1.500000000000e+04 5.225999598040e-01 
0.000000000000e+00 8.500000000000e-01 0.000000000000e+00 -1.500000000000e+04 5.225999598040e-01 
0.000000000000e+00 8.600000000000e-01 0.000000000000e+00 -1.500000000000e+04 5.225999598040e-01 
0.000000000000e+00 8.700000000000e-01 0.000000000000e+00 -1.500000000000e+04 5.225999598040e-01 
0.000000000000e+00 8.800000000000e-01 0.000000000000e+00 -1.500000000000e+04 5.225999598040e-01 
0.000000000000e+00 8.900000000000e-01 0.000000000000e+00 -1.500000000000e+04 5.225999598040e-01 
0.000000000000e+00 9.000000000000e-01 0.000000000000e+00 -1.500000000000e+04 5.225999598040e-01 
0.000000000000e+00 9.100000000000e-01 0.000000000000e+00 -1.500000000000e+04 5.225999598040e-01 
0.000000000000e+00 9.200000000000e-01 0.000000000000e+00 -1.500000000000e+04 5.225999598040e-01 
0.000000000000e+00 9.300000000000e-01 0.000000000000e+00 -1.500000000000e+04 5.225999598040e-01 
0.000000000000e+00 9.400000000000e-01 0.000000000000e+00 -1.500000000000e+04 5.225999598040e-01 
0.000000000000e+00 9.500000000000e-01 0.000000000000e+00 -1.500000000000e+04 5.225999598040e-01 
0.000000000000e+00 9.600000000000e-01 0.000000000000e+00 -1.500000000000e+04 5.225999598040e-01 
0.000000000000e+00 9.700000000000e-01 0.000000000000e+00 -1.500000000000e+04 5.225999598040e-01 
0.000000000000e+00 9.800000000000e-01 0.000000000000e+00 -1.500000000000e+04 5.225999598040e-01 
0.000000000000e+00 9.900000000000e-01 0.000000000000e+00 -1.500000000000e+04 5.225999598040e-01 
1  3  3  1
3  4  4  3
4  5  5  4
5  6  6  5
6  7  7  6
7  8  8  7
8  9  9  8
9  10  10  9
10  11  11  10
11  12  12  11
12  13  13  12
13  14  14  13
14  15  15  14
15  16  16  15
16  17  17  16
17  18  18  17
18  19  19  18
19  20  20  19
20  21  21  20
21  22  22  21
22  23  23  22
23  24  24  23
24  25  25  24
25  26  26  25
26  27  27  26
27  28  28  27
28  29  29  28
29  30  30  29
30  31  31  30
31  32  32  31
32  33  33  32
33  34  34  33
34  35  35  34
35  36  36  35
36  37  37  36
37  38  38  37
38  39  39  38
39  40  40  39
40  41  41  40
41  42  42  41
42  43  43  42
43  44  44  43
44  45  45  44
45  46  46  45
46  47  47  46
47  48  48  47
48  49  49  48
49  50  50  49
50  51  51  50
51  52  52  51
52  53  53  52
53  54  54  53
54  55  55  54
55  56  56  55
56  57  57  56
57  58  58  57
58  59  59  58
59  60  60  59
60  61  61  60
61  62  62  61
62  63  63  62
63  64  64  63
64  65  65  64
65  66  66  65
66  67  67  66
67  68  68  67
68  69  69  68
69  70  70  69
70  71  71  70
71  72  72  71
72  73  73  72
73  74  74  73
74  75  75  74
75  76  76  75
76  77  77  76
77  78  78  77
78  79  79  78
79  80  80  79
80  81  81  80
81  82  82  81
82  83  83  82
83  84  84  83
84  85  85  84
85  86  86  85
86  87  87  86
87  88  88  87
88  89  89  88
89  90  90  89
90  91  91  90
91  92  92  91
92  93  93  92
93  94  94  93
94  95  95  94
95  96  96  95
96  97  97  96
97  98  98  97
98  99  99  98
99  100  100  99
100  101  101  100
101  2  2  101
VARIABLES  = "X","Y","Z", "PRESSURE1", "SATURATION1"
ZONE T="1.000000000000e+01s", N=101, E=100, F=FEPOINT, ET=QUADRILATERAL
STRANDID=1, SOLUTIONTIME=1.000000000000e+01
0.000000000000e+00 0.000000000000e+00 0.000000000000e+00 -9.000000000000e+03 5.225999961179e-01 
0.000000000000e+00 1.000000000000e+00 0.000000000000e+00 -8.874999826303e+03 5.225999963562e-01 
0.000000000000e+00 1.000000000000e-02 0.000000000000e+00 -8.998749998220e+03 5.225999961192e-01 
0.000000000000e+00 2.000000000000e-02 0.000000000000e+00 -8.997499996440e+03 5.225999961216e-01 
0.000000000000e+00 3.000000000000e-02 0.000000000000e+00 -8.996249994662e+03 5.225999961241e-01 
0.000000000000e+00 4.000000000000e-02 0.000000000000e+00 -8.994999992884e+03 5.225999961266e-01 
0.000000000000e+00 5.000000000000e-02 0.000000000000e+00 -8.993749991108e+03 5.225999961290e-01 
0.000000000000e+00 6.000000000000e-02 0.000000000000e+00 -8.992499989332e+03 5.225999961315e-01 
0.000000000000e+00 7.000000000000e-02 0.000000000000e+00 -8.991249987557e+03 5.225999961340e-01 
0.000000000000e+00 8.000000000000e-02 0.000000000000e+00 -8.989999985783e+03 5.225999961364e-01 
0.000000000000e+00 9.000000000000e-02 0.000000000000e+00 -8.988749984010e+03 5.225999961389e-01 
0.000000000000e+00 1.000000000000e-01 0.000000000000e+00 -8.987499982237e+03 5.225999961413e-01 
0.000000000000e+00 1.100000000000e-01 0.000000000000e+00 -8.986249980466e+03 5.225999961438e-01 
0.000000000000e+00 1.200000000000e-01 0.000000000000e+00 -8.984999978695e+03 5.225999961462e-01 
0.000000000000e+00 1.300000000000e-01 0.000000000000e+00 -8.983749976926e+03 5.225999961487e-01 
0.000000000000e+00 1.400000000000e-01 0.000000000000e+00 -8.982499975157e+03 5.225999961511e-01 
0.000000000000e+00 1.500000000000e-01 0.000000000000e+00 -8.981249973389e+03 5.225999961536e-01 
0.000000000000e+00 1.600000000000e-01 0.000000000000e+00 -8.979999971622e+03 5.225999961560e-01 
0.000000000000e+00 1.700000000000e-01 0.000000000000e+00 -8.978749969856e+03 5.225999961585e-01 
0.000000000000e+00 1.800000000000e-01 0.000000000000e+00 -8.977499968091e+03 5.225999961609e-01 
0.000000000000e+00 1.900000000000e-01 0.000000000000e+00 -8.976249966326e+03 5.225999961634e-01 
0.000000000000e+00 2.000000000000e-01 0.000000000000e+00 -8.974999964563e+03 5.225999961658e-01 
0.000000000000e+00 2.100000000000e-01 0.000000000000e+00 -8.973749962800e+03 5.225999961683e-01 
0.000000000000e+00 2.200000000000e-01 0.000000000000e+00 -8.972499961038e+03 5.225999961707e-01 
0.000000000000e+00 2.300000000000e-01 0.000000000000e+00 -8.971249959277e+03 5.225999961731e-01 
0.000000000000e+00 2.400000000000e-01 0.000000000000e+00 -8.969999957517e+03 5.225999961756e-01 
0.000000000000e+00 2.500000000000e-01 0.000000000000e+00 -8.968749955758e+03 5.225999961780e-01 
0.000000000000e+00 2.600000000000e-01 0.000000000000e+00 -8.967499954000e+03 5.225999961805e-01 
0.000000000000e+00 2.700000000000e-01 0.000000000000e+00 -8.966249952243e+03 5.225999961829e-01 
0.000000000000e+00 2.800000000000e-01 0.000000000000e+00 -8.964999950486e+03 5.225999961853e-01 
0.000000000000e+00 2.900000000000e-01 0.000000000000e+00 -8.963749948731e+03 5.225999961878e-01 
0.000000000000e+00 3.000000000000e-01 0.000000000000e+00 -8.962499946976e+03 5.225999961902e-01 
0.000000000000e+00 3.100000000000e-01 0.000000000000e+00 -8.961249945222e+03 5.225999961926e-01 
0.000000000000e+00 3.200000000000e-01 0.000000000000e+00 -8.959999943469e+03 5.225999961950e-01 
0.000000000000e+00 3.300000000000e-01 0.000000000000e+00 -8.958749941717e+03 5.225999961975e-01 
0.000000000000e+00 3.400000000000e-01 0.000000000000e+00 -8.957499939966e+03 5.225999961999e-01 
0.000000000000e+00 3.500000000000e-01 0.000000000000e+00 -8.956249938215e+03 5.225999962023e-01 
0.000000000000e+00 3.600000000000e-01 0.000000000000e+00 -8.954999936466e+03 5.225999962048e-01 
0.000000000000e+00 3.700000000000e-01 0.000000000000e+00 -8.953749934717e+03 5.225999962072e-01 
0.000000000000e+00 3.800000000000e-01 0.000000000000e+00 -8.952499932969e+03 5.225999962096e-01 
0.000000000000e+00 3.900000000000e-01 0.000000000000e+00 -8.951249931223e+03 5.225999962120e-01 
0.000000000000e+00 4.000000000000e-01 0.000000000000e+00 -8.949999929477e+03 5.225999962144e-01 
0.000000000000e+00 4.100000000000e-01 0.000000000000e+00 -8.948749927731e+03 5.225999962169e-01 
0.000000000000e+00 4.200000000000e-01 0.000000000000e+00 -8.947499925987e+03 5.225999962193e-01 
0.000000000000e+00 4.300000000000e-01 0.000000000000e+00 -8.946249924244e+03 5.225999962217e-01 
0.000000000000e+00 4.400000000000e-01 0.000000000000e+00 -8.944999922501e+03 5.225999962241e-01 
0.000000000000e+00 4.500000000000e-01 0.000000000000e+00 -8.943749920760e+03 5.225999962265e-01 
0.000000000000e+00 4.600000000000e-01 0.000000000000e+00 -8.942499919019e+03 5.225999962289e-01 
0.000000000000e+00 4.700000000000e-01 0.000000000000e+00 -8.941249917279e+03 5.225999962313e-01 
0.000000000000e+00 4.800000000000e-01 0.000000000000e+00 -8.939999915540e+03 5.225999962337e-01 
0.000000000000e+00 4.900000000000e-01 0.000000000000e+00 -8.938749913802e+03 5.225999962362e-01 
0.000000000000e+00 5.000000000000e-01 0.000000000000e+00 -8.937499912065e+03 5.225999962386e-01 
0.000000000000e+00 5.100000000000e-01 0.000000000000e+00 -8.936249910328e+03 5.225999962410e-01 
0.000000000000e+00 5.200000000000e-01 0.000000000000e+00 -8.934999908593e+03 5.225999962434e-01 
0.000000000000e+00 5.300000000000e-01 0.000000000000e+00 -8.933749906858e+03 5.225999962458e-01 
0.000000000000e+00 5.400000000000e-01 0.000000000000e+00 -8.932499905124e+03 5.225999962482e-01 
0.000000000000e+00 5.500000000000e-01 0.000000000000e+00 -8.931249903391e+03 5.225999962506e-01 
0.000000000000e+00 5.600000000000e-01 0.000000000000e+00 -8.929999901659e+03 5.225999962530e-01 
0.000000000000e+00 5.700000000000e-01 0.000000000000e+00 -8.928749899928e+03 5.225999962554e-01 
0.000000000000e+00 5.800000000000e-01 0.000000000000e+00 -8.927499898198e+03 5.225999962578e-01 
0.000000000000e+00 5.900000000000e-01 0.000000000000e+00 -8.926249896468e+03 5.225999962602e-01 
0.000000000000e+00 6.000000000000e-01 0.000000000000e+00 -8.924999894740e+03 5.225999962626e-01 
0.000000000000e+00 6.100000000000e-01 0.000000000000e+00 -8.923749893012e+03 5.225999962650e-01 
0.000000000000e+00 6.200000000000e-01 0.000000000000e+00 -8.922499891285e+03 5.225999962674e-01 
0.000000000000e+00 6.300000000000e-01 0.000000000000e+00 -8.921249889559e+03 5.225999962698e-01 
0.000000000000e+00 6.400000000000e-01 0.000000000000e+00 -8.919999887834e+03 5.225999962721e-01 
0.000000000000e+00 6.500000000000e-01 0.000000000000e+00 -8.918749886110e+03 5.225999962745e-01 
0.000000000000e+00 6.600000000000e-01 0.000000000000e+00 -8.917499884386e+03 5.225999962769e-01 
0.000000000000e+00 6.700000000000e-01 0.000000000000e+00 -8.916249882664e+03 5.225999962793e-01 
0.000000000000e+00 6.800000000000e-01 0.000000000000e+00 -8.914999880942e+03 5.225999962817e-01 
0.000000000000e+00 6.900000000000e-01 0.000000000000e+00 -8.913749879221e+03 5.225999962841e-01 
0.000000000000e+00 7.000000000000e-01 0.000000000000e+00 -8.912499877501e+03 5.225999962865e-01 
0.000000000000e+00 7.100000000000e-01 0.000000000000e+00 -8.911249875782e+03 5.225999962888e-01 
0.000000000000e+00 7.200000000000e-01 0.000000000000e+00 -8.909999874064e+03 5.225999962912e-01 
0.000000000000e+00 7.300000000000e-01 0.000000000000e+00 -8.908749872347e+03 5.225999962936e-01 
0.000000000000e+00 7.400000000000e-01 0.000000000000e+00 -8.907499870630e+03 5.225999962960e-01 
0.000000000000e+00 7.500000000000e-01 0.000000000000e+00 -8.906249868914e+03 5.225999962984e-01 
0.000000000000e+00 7.600000000000e-01 0.000000000000e+00 -8.904999867200e+03 5.225999963007e-01 
0.000000000000e+00 7.700000000000e-01 0.000000000000e+00 -8.903749865486e+03 5.225999963031e-01 
0.000000000000e+00 7.800000000000e-01 0.000000000000e+00 -8.902499863773e+03 5.225999963055e-01 
0.000000000000e+00 7.900000000000e-01 0.000000000000e+00 -8.901249862061e+03 5.225999963079e-01 
0.000000000000e+00 8.000000000000e-01 0.000000000000e+00 -8.899999860349e+03 5.225999963102e-01 
0.000000000000e+00 8.100000000000e-01 0.000000000000e+00 -8.898749858639e+03 5.225999963126e-01 
0.000000000000e+00 8.200000000000e-01 0.000000000000e+00 -8.897499856929e+03 5.225999963150e-01 
0.000000000000e+00 8.300000000000e-01 0.000000000000e+00 -8.896249855220e+03 5.225999963173e-01 
0.000000000000e+00 8.400000000000e-01 0.000000000000e+00 -8.894999853512e+03 5.225999963197e-01 
0.000000000000e+00 8.500000000000e-01 0.000000000000e+00 -8.893749851805e+03 5.225999963221e-01 
0.000000000000e+00 8.600000000000e-01 0.000000000000e+00 -8.892499850099e+03 5.225999963244e-01 
0.000000000000e+00 8.700000000000e-01 0.000000000000e+00 -8.891249848394e+03 5.225999963268e-01 
0.000000000000e+00 8.800000000000e-01 0.000000000000e+00 -8.889999846689e+03 5.225999963292e-01 
0.000000000000e+00 8.900000000000e-01 0.000000000000e+00 -8.888749844986e+03 5.225999963315e-01 
0.000000000000e+00 9.000000000000e-01 0.000000000000e+00 -8.887499843283e+03 5.225999963339e-01 
0.000000000000e+00 9.100000000000e-01 0.000000000000e+00 -8.886249841581e+03 5.225999963362e-01 
0.000000000000e+00 9.200000000000e-01 0.000000000000e+00 -8.884999839880e+03 5.225999963386e-01 
0.000000000000e+00 9.300000000000e-01 0.000000000000e+00 -8.883749838180e+03 5.225999963409e-01 
0.000000000000e+00 9.400000000000e-01 0.000000000000e+00 -8.882499836481e+03 5.225999963433e-01 
0.000000000000e+00 9.500000000000e-01 0.000000000000e+00 -8.881249834782e+03 5.225999963457e-01 
0.000000000000e+00 9.600000000000e-01 0.000000000000e+00 -8.879999833085e+03 5.225999963480e-01 
0.000000000000e+00 9.700000000000e-01 0.000000000000e+00 -8.878749831388e+03 5.225999963504e-01 
0.000000000000e+00 9.800000000000e-01 0.000000000000e+00 -8.877499829692e+03 5.225999963527e-01 
0.000000000000e+00 9.900000000000e-01 0.000000000000e+00 -8.876249827997e+03 5.225999963551e-01 
1  3  3  1
3  4  4  3
4  5  5  4
5  6  6  5
6  7  7  6
7  8  8  7
8  9  9  8
9  10  10  9
10  11  11  10
11  12  12  11
12  13  13  12
13  14  14  13
14  15  15  14
15  16  16  15
16  17  17  16
17  18  18  17
18  19  19  18
19  20  20  19
20  21  21  20
21  22  22  21
22  23  23  22
23  24  24  23
24  25  25  24
25  26  26  25
26  27  27  26
27  28  28  27
28  29  29  28
29  30  30  29
30  31  31  30
31  32  32  31
32  33  33  32
33  34  34  33
34  35  35  34
35  36  36  35
36  37  37  36
37  38  38  37
38  39  39  38
39  40  40  39
40  41  41  40
41  42  42  41
42  43  43  42
43  44  44  43
44  45  45  44
45  46  46  45
46  47  47  46
47  48  48  47
48  49  49  48
49  50  50  49
50  51  51  50
51  52  52  51
52  53  53  52
53  54  54  53
54  55  55  54
55  56  56  55
56  57  57  56
57  58  58  57
58  59  59  58
59  60  60  59
60  61  61  60
61  62  62  61
62  63  63  62
63  64  64  63
64  65  65  64
65  66  66  65
66  67  67  66
67  68  68  67
68  69  69  68
69  70  70  69
70  71  71  70
71  72  72  71
72  73  73  72
73  74  74  73
74  75  75  74
75  76  76  75
76  77  77  76
77  78  78  77
78  79  79  78
79  80  80  79
80  81  81  80
81  82  82  81
82  83  83  82
83  84  84  83
84  85  85  84
85  86  86  85
86  87  87  86
87  88  88  87
88  89  89  88
89  90  90  89
90  91  91  90
91  92  92  91
92  93  93  92
93  94  94  93
94  95  95  94
95  96  96  95
96  97  97  96
97  98  98  97
98  99  99  98
99  100  100  99
100  101  101  100
101  2  2  101
VARIABLES  = "X","Y","Z", "PRESSURE1", "SATURATION1"
ZONE T="2.000000000000e+01s", N=101, E=100, F=FEPOINT, ET=QUADRILATERAL
STRANDID=1, SOLUTIONTIME=2.000000000000e+01
0.000000000000e+00 0.000000000000e+00 0.000000000000e+00 -9.000000000000e+03 5.225999961179e-01 
0.000000000000e+00 1.000000000000e+00 0.000000000000e+00 -8.874999826303e+03 5.225999963562e-01 
0.000000000000e+00 1.000000000000e-02 0.000000000000e+00 -8.998749998220e+03 5.225999961192e-01 
0.000000000000e+00 2.000000000000e-02 0.000000000000e+00 -8.997499996440e+03 5.225999961216e-01 
0.000000000000e+00 3.000000000000e-02 0.000000000000e+00 -8.996249994662e+03 5.225999961241e-01 
0.000000000000e+00 4.000000000000e-02 0.000000000000e+00 -8.994999992884e+03 5.225999961266e-01 
0.000000000000e+00 5.000000000000e-02 0.000000000000e+00 -8.993749991108e+03 5.225999961290e-01 
0.000000000000e+00 6.000000000000e-02 0.000000000000e+00 -8.992499989332e+03 5.225999961315e-01 
0.000000000000e+00 7.000000000000e-02 0.000000000000e+00 -8.991249987557e+03 5.225999961340e-01 
0.000000000000e+00 8.000000000000e-02 0.000000000000e+00 -8.989999985783e+03 5.225999961364e-01 
0.000000000000e+00 9.000000000000e-02 0.000000000000e+00 -8.988749984010e+03 5.225999961389e-01 
0.000000000000e+00 1.000000000000e-01 0.000000000000e+00 -8.987499982237e+03 5.225999961413e-01 
0.000000000000e+00 1.100000000000e-01 0.000000000000e+00 -8.986249980466e+03 5.225999961438e-01 
0.000000000000e+00 1.200000000000e-01 0.000000000000e+00 -8.984999978695e+03 5.225999961462e-01 
0.000000000000e+00 1.300000000000e-01 0.000000000000e+00 -8.983749976926e+03 5.225999961487e-01 
0.000000000000e+00 1.400000000000e-01 0.000000000000e+00 -8.982499975157e+03 5.225999961511e-01 
0.000000000000e+00 1.500000000000e-01 0.000000000000e+00 -8.981249973389e+03 5.225999961536e-01 
0.000000000000e+00 1.600000000000e-01 0.000000000000e+00 -8.979999971622e+03 5.225999961560e-01 
0.000000000000e+00 1.700000000000e-01 0.000000000000e+00 -8.978749969856e+03 5.225999961585e-01 
0.000000000000e+00 1.800000000000e-01 0.000000000000e+00 -8.977499968091e+03 5.225999961609e-01 
0.000000000000e+00 1.900000000000e-01 0.000000000000e+00 -8.976249966326e+03 5.225999961634e-01 
0.000000000000e+00 2.000000000000e-01 0.000000000000e+00 -8.974999964563e+03 5.225999961658e-01 
0.000000000000e+00 2.100000000000e-01 0.000000000000e+00 -8.973749962800e+03 5.225999961683e-01 
0.000000000000e+00 2.200000000000e-01 0.000000000000e+00 -8.972499961038e+03 5.225999961707e-01 
0.000000000000e+00 2.300000000000e-01 0.000000000000e+00 -8.971249959277e+03 5.225999961731e-01 
0.000000000000e+00 2.400000000000e-01 0.000000000000e+00 -8.969999957517e+03 5.225999961756e-01 
0.000000000000e+00 2.500000000000e-01 0.000000000000e+00 -8.968749955758e+03 5.225999961780e-01 
0.000000000000e+00 2.600000000000e-01 0.000000000000e+00 -8.967499954000e+03 5.225999961805e-01 
0.000000000000e+00 2.700000000000e-01 0.000000000000e+00 -8.966249952243e+03 5.225999961829e-01 
0.000000000000e+00 2.800000000000e-01 0.000000000000e+00 -8.964999950486e+03 5.225999961853e-01 
0.000000000000e+00 2.900000000000e-01 0.000000000000e+00 -8.963749948731e+03 5.225999961878e-01 
0.000000000000e+00 3.000000000000e-01 0.000000000000e+00 -8.962499946976e+03 5.225999961902e-01 
0.000000000000e+00 3.100000000000e-01 0.000000000000e+00 -8.961249945222e+03 5.225999961926e-01 
0.000000000000e+00 3.200000000000e-01 0.000000000000e+00 -8.959999943469e+03 5.225999961950e-01 
0.000000000000e+00 3.300000000000e-01 0.000000000000e+00 -8.958749941717e+03 5.225999961975e-01 
0.000000000000e+00 3.400000000000e-01 0.000000000000e+00 -8.957499939966e+03 5.225999961999e-01 
0.000000000000e+00 3.500000000000e-01 0.000000000000e+00 -8.956249938215e+03 5.225999962023e-01 
0.000000000000e+00 3.600000000000e-01 0.000000000000e+00 -8.954999936466e+03 5.225999962048e-01 
0.000000000000e+00 3.700000000000e-01 0.000000000000e+00 -8.953749934717e+03 5.225999962072e-01 
0.000000000000e+00 3.800000000000e-01 0.000000000000e+00 -8.952499932969e+03 5.225999962096e-01 
0.000000000000e+00 3.900000000000e-01 0.000000000000e+00 -8.951249931223e+03 5.225999962120e-01 
0.000000000000e+00 4.000000000000e-01 0.000000000000e+00 -8.949999929477e+03 5.225999962144e-01 
0.000000000000e+00 4.100000000000e-01 0.000000000000e+00 -8.948749927731e+03 5.225999962169e-01 
0.000000000000e+00 4.200000000000e-01 0.000000000000e+00 -8.947499925987e+03 5.225999962193e-01 
0.000000000000e+00 4.300000000000e-01 0.000000000000e+00 -8.946249924244e+03 5.225999962217e-01 
0.000000000000e+00 4.400000000000e-01 0.000000000000e+00 -8.944999922501e+03 5.225999962241e-01 
0.000000000000e+00 4.500000000000e-01 0.000000000000e+00 -8.943749920760e+03 5.225999962265e-01 
0.000000000000e+00 4.600000000000e-01 0.000000000000e+00 -8.942499919019e+03 5.225999962289e-01 
0.000000000000e+00 4.700000000000e-01 0.000000000000e+00 -8.941249917279e+03 5.225999962313e-01 
0.000000000000e+00 4.800000000000e-01 0.000000000000e+00 -8.939999915540e+03 5.225999962337e-01 
0.000000000000e+00 4.900000000000e-01 0.000000000000e+00 -8.938749913802e+03 5.225999962362e-01 
0.000000000000e+00 5.000000000000e-01 0.000000000000e+00 -8.937499912065e+03 5.225999962386e-01 
0.000000000000e+00 5.100000000000e-01 0.000000000000e+00 -8.936249910328e+03 5.225999962410e-01 
0.000000000000e+00 5.200000000000e-01 0.000000000000e+00 -8.934999908593e+03 5.225999962434e-01 
0.000000000000e+00 5.300000000000e-01 0.000000000000e+00 -8.933749906858e+03 5.225999962458e-01 
0.000000000000e+00 5.400000000000e-01 0.000000000000e+00 -8.932499905124e+03 5.225999962482e-01 
0.000000000000e+00 5.500000000000e-01 0.000000000000e+00 -8.931249903391e+03 5.225999962506e-01 
0.000000000000e+00 5.600000000000e-01 0.000000000000e+00 -8.929999901659e+03 5.225999962530e-01 
0.000000000000e+00 5.700000000000e-01 0.000000000000e+00 -8.928749899928e+03 5.225999962554e-01 
0.000000000000e+00 5.800000000000e-01 0.000000000000e+00 -8.927499898198e+03 5.225999962578e-01 
0.000000000000e+00 5.900000000000e-01 0.000000000000e+00 -8.926249896468e+03 5.225999962602e-01 
0.000000000000e+00 6.000000000000e-01 0.000000000000e+00 -8.924999894740e+03 5.225999962626e-01 
0.000000000000e+00 6.100000000000e-01 0.000000000000e+00 -8.923749893012e+03 5.225999962650e-01 
0.000000000000e+00 6.200000000000e-01 0.000000000000e+00 -8.922499891285e+03 5.225999962674e-01 
0.000000000000e+00 6.300000000000e-01 0.000000000000e+00 -8.921249889559e+03 5.225999962698e-01 
0.000000000000e+00 6.400000000000e-01 0.000000000000e+00 -8.919999887834e+03 5.225999962721e-01 
0.000000000000e+00 6.500000000000e-01 0.000000000000e+00 -8.918749886110e+03 5.225999962745e-01 
0.000000000000e+00 6.600000000000e-01 0.000000000000e+00 -8.917499884386e+03 5.225999962769e-01 
0.000000000000e+00 6.700000000000e-01 0.000000000000e+00 -8.916249882664e+03 5.225999962793e-01 
0.000000000000e+00 6.800000000000e-01 0.000000000000e+00 -8.914999880942e+03 5.225999962817e-01 
0.000000000000e+00 6.900000000000e-01 0.000000000000e+00 -8.913749879221e+03 5.225999962841e-01 