VARIABLES  = "X","Y","Z", "tracer"
ZONE T="0.000000000000e+00s", N=101, E=100, F=FEPOINT, ET=QUADRILATERAL
STRANDID=1, SOLUTIONTIME=0.000000000000e+00
0.000000000000e+00 0.000000000000e+00 0.000000000000e+00 1.000000000000e-20 
0.000000000000e+00 1.000000000000e+00 0.000000000000e+00 1.000000000000e-20 
0.000000000000e+00 1.000000000000e-02 0.000000000000e+00 1.000000000000e-20 
0.000000000000e+00 2.000000000000e-02 0.000000000000e+00 1.000000000000e-20 
0.000000000000e+00 3.000000000000e-02 0.000000000000e+00 1.000000000000e-20 
0.000000000000e+00 4.000000000000e-02 0.000000000000e+00 1.000000000000e-20 
0.000000000000e+00 5.000000000000e-02 0.000000000000e+00 1.000000000000e-20 
0.000000000000e+00 6.000000000000e-02 0.000000000000e+00 1.000000000000e-20 
0.000000000000e+00 7.000000000000e-02 0.000000000000e+00 1.000000000000e-20 
0.000000000000e+00 8.000000000000e-02 0.000000000000e+00 1.000000000000e-20 
0.000000000000e+00 9.000000000000e-02 0.000000000000e+00 1.000000000000e-20 
0.000000000000e+00 1.000000000000e-01 0.000000000000e+00 1.000000000000e-20 
0.000000000000e+00 1.100000000000e-01 0.000000000000e+00 1.000000000000e-20 
0.000000000000e+00 1.200000000000e-01 0.000000000000e+00 1.000000000000e-20 
0.000000000000e+00 1.300000000000e-01 0.000000000000e+00 1.000000000000e-20 
0.000000000000e+00 1.400000000000e-01 0.000000000000e+00 1.000000000000e-20 
0.000000000000e+00 1.500000000000e-01 0.000000000000e+00 1.000000000000e-20 
0.000000000000e+00 1.600000000000e-01 0.000000000000e+00 1.000000000000e-20 
0.000000000000e+00 1.700000000000e-01 0.000000000000e+00 1.000000000000e-20 
0.000000000000e+00 1.800000000000e-01 0.000000000000e+00 1.000000000000e-20 
0.000000000000e+00 1.900000000000e-01 0.000000000000e+00 1.000000000000e-20 
0.000000000000e+00 2.000000000000e-01 0.000000000000e+00 1.000000000000e-20 
0.000000000000e+00 2.100000000000e-01 0.000000000000e+00 1.000000000000e-20 
0.000000000000e+00 2.200000000000e-01 0.000000000000e+00 1.000000000000e-20 
0.000000000000e+00 2.300000000000e-01 0.000000000000e+00 1.000000000000e-20 
0.000000000000e+00 2.400000000000e-01 0.000000000000e+00 1.000000000000e-20 
0.000000000000e+00 2.500000000000e-01 0.000000000000e+00 1.000000000000e-20 
0.000000000000e+00 2.600000000000e-01 0.000000000000e+00 1.000000000000e-20 
0.000000000000e+00 2.700000000000e-01 0.000000000000e+00 1.000000000000e-20 
0.000000000000e+00 2.800000000000e-01 0.000000000000e+00 1.000000000000e-20 
0.000000000000e+00 2.900000000000e-01 0.000000000000e+00 1.000000000000e-20 
0.000000000000e+00 3.000000000000e-01 0.000000000000e+00 1.000000000000e-20 
0.000000000000e+00 3.100000000000e-01 0.000000000000e+00 1.000000000000e-20 
0.000000000000e+00 3.200000000000e-01 0.000000000000e+00 1.000000000000e-20 
0.000000000000e+00 3.300000000000e-01 0.000000000000e+00 1.000000000000e-20 
0.000000000000e+00 3.400000000000e-01 0.000000000000e+00 1.000000000000e-20 
0.000000000000e+00 3.500000000000e-01 0.000000000000e+00 1.000000000000e-20 
0.000000000000e+00 3.600000000000e-01 0.000000000000e+00 1.000000000000e-20 
0.000000000000e+00 3.700000000000e-01 0.000000000000e+00 1.000000000000e-20 
0.000000000000e+00 3.800000000000e-01 0.000000000000e+00 1.000000000000e-20 
0.000000000000e+00 3.900000000000e-01 0.000000000000e+00 1.000000000000e-20 
0.000000000000e+00 4.000000000000e-01 0.000000000000e+00 1.000000000000e-20 
0.000000000000e+00 4.100000000000e-01 0.000000000000e+00 1.000000000000e-20 
0.000000000000e+00 4.200000000000e-01 0.000000000000e+00 1.000000000000e-20 
0.000000000000e+00 4.300000000000e-01 0.000000000000e+00 1.000000000000e-20 
0.000000000000e+00 4.400000000000e-01 0.000000000000e+00 1.000000000000e-20 
0.000000000000e+00 4.500000000000e-01 0.000000000000e+00 1.000000000000e-20 
0.000000000000e+00 4.600000000000e-01 0.000000000000e+00 1.000000000000e-20 
0.000000000000e+00 4.700000000000e-01 0.000000000000e+00 1.000000000000e-20 
0.000000000000e+00 4.800000000000e-01 0.000000000000e+00 1.000000000000e-20 
0.000000000000e+00 4.900000000000e-01 0.000000000000e+00 1.000000000000e-20 
0.000000000000e+00 5.000000000000e-01 0.000000000000e+00 1.000000000000e-20 
0.000000000000e+00 5.100000000000e-01 0.000000000000e+00 1.000000000000e-20 
0.000000000000e+00 5.200000000000e-01 0.000000000000e+00 1.000000000000e-20 
0.000000000000e+00 5.300000000000e-01 0.000000000000e+00 1.000000000000e-20 
0.000000000000e+00 5.400000000000e-01 0.000000000000e+00 1.000000000000e-20 
0.000000000000e+00 5.500000000000e-01 0.000000000000e+00 1.000000000000e-20 
0.000000000000e+00 5.600000000000e-01 0.000000000000e+00 1.000000000000e-20 
0.000000000000e+00 5.700000000000e-01 0.000000000000e+00 1.000000000000e-20 
0.000000000000e+00 5.800000000000e-01 0.000000000000e+00 1.000000000000e-20 
0.000000000000e+00 5.900000000000e-01 0.000000000000e+00 1.000000000000e-20 
0.000000000000e+00 6.000000000000e-01 0.000000000000e+00 1.000000000000e-20 
0.000000000000e+00 6.100000000000e-01 0.000000000000e+00 1.000000000000e-20 
0.000000000000e+00 6.200000000000e-01 0.000000000000e+00 1.000000000000e-20 
0.000000000000e+00 6.300000000000e-01 0.000000000000e+00 1.000000000000e-20 
0.000000000000e+00 6.400000000000e-01 0.000000000000e+00 1.000000000000e-20 
0.000000000000e+00 6.500000000000e-01 0.000000000000e+00 1.000000000000e-20 
0.000000000000e+00 6.600000000000e-01 0.000000000000e+00 1.000000000000e-20 
0.000000000000e+00 6.700000000000e-01 0.000000000000e+00 1.000000000000e-20 
0.000000000000e+00 6.800000000000e-01 0.000000000000e+00 1.000000000000e-20 
0.000000000000e+00 6.900000000000e-01 0.000000000000e+00 1.000000000000e-20 
0.000000000000e+00 7.000000000000e-01 0.000000000000e+00 1.000000000000e-20 
0.000000000000e+00 7.100000000000e-01 0.000000000000e+00 1.000000000000e-20 
0.000000000000e+00 7.200000000000e-01 0.000000000000e+00 1.000000000000e-20 
0.000000000000e+00 7.300000000000e-01 0.000000000000e+00 1.000000000000e-20 
0.000000000000e+00 7.400000000000e-01 0.000000000000e+00 1.000000000000e-20 
0.000000000000e+00 7.500000000000e-01 0.000000000000e+00 1.000000000000e-20 
0.000000000000e+00 7.600000000000e-01 0.000000000000e+00 1.000000000000e-20 
0.000000000000e+00 7.700000000000e-01 0.000000000000e+00 1.000000000000e-20 
0.000000000000e+00 7.800000000000e-01 0.000000000000e+00 1.000000000000e-20 
0.000000000000e+00 7.900000000000e-01 0.000000000000e+00 1.000000000000e-20 
0.000000000000e+00 8.000000000000e-01 0.000000000000e+00 1.000000000000e-20 
0.000000000000e+00 8.100000000000e-01 0.000000000000e+00 1.000000000000e-20 
0.000000000000e+00 8.200000000000e-01 0.000000000000e+00 1.000000000000e-20 
0.000000000000e+00 8.300000000000e-01 0.000000000000e+00 1.000000000000e-20 
0.000000000000e+00 8.400000000000e-01 0.000000000000e+00 1.000000000000e-20 
0.000000000000e+00 8.500000000000e-01 0.000000000000e+00 1.000000000000e-20 
0.000000000000e+00 8.600000000000e-01 0.000000000000e+00 1.000000000000e-20 
0.000000000000e+00 8.700000000000e-01 0.000000000000e+00 1.000000000000e-20 
0.000000000000e+00 8.800000000000e-01 0.000000000000e+00 1.000000000000e-20 
0.000000000000e+00 8.900000000000e-01 0.000000000000e+00 1.000000000000e-20 
0.000000000000e+00 9.000000000000e-01 0.000000000000e+00 1.000000000000e-20 
0.000000000000e+00 9.100000000000e-01 0.000000000000e+00 1.000000000000e-20 
0.000000000000e+00 9.200000000000e-01 0.000000000000e+00 1.000000000000e-20 
0.000000000000e+00 9.300000000000e-01 0.000000000000e+00 1.000000000000e-20 
0.000000000000e+00 9.400000000000e-01 0.000000000000e+00 1.000000000000e-20 
0.000000000000e+00 9.500000000000e-01 0.000000000000e+00 1.000000000000e-20 
0.000000000000e+00 9.600000000000e-01 0.000000000000e+00 1.000000000000e-20 
0.000000000000e+00 9.700000000000e-01 0.000000000000e+00 1.000000000000e-20 
0.000000000000e+00 9.800000000000e-01 0.000000000000e+00 1.000000000000e-20 
0.000000000000e+00 9.900000000000e-01 0.000000000000e+00 1.000000000000e-20 
1  3  3  1
3  4  4  3
4  5  5  4
5  6  6  5
6  7  7  6
7  8  8  7
8  9  9  8
9  10  10  9
10  11  11  10
11  12  12  11
12  13  13  12
13  14  14  13
14  15  15  14
15  16  16  15
16  17  17  16
17  18  18  17
18  19  19  18
19  20  20  19
20  21  21  20
21  22  22  21
22  23  23  22
23  24  24  23
24  25  25  24
25  26  26  25
26  27  27  26
27  28  28  27
28  29  29  28
29  30  30  29
30  31  31  30
31  32  32  31
32  33  33  32
33  34  34  33
34  35  35  34
35  36  36  35
36  37  37  36
37  38  38  37
38  39  39  38
39  40  40  39
40  41  41  40
41  42  42  41
42  43  43  42
43  44  44  43
44  45  45  44
45  46  46  45
46  47  47  46
47  48  48  47
48  49  49  48
49  50  50  49
50  51  51  50
51  52  52  51
52  53  53  52
53  54  54  53
54  55  55  54
55  56  56  55
56  57  57  56
57  58  58  57
58  59  59  58
59  60  60  59
60  61  61  60
61  62  62  61
62  63  63  62
63  64  64  63
64  65  65  64
65  66  66  65
66  67  67  66
67  68  68  67
68  69  69  68
69  70  70  69
70  71  71  70
71  72  72  71
72  73  73  72
73  74  74  73
74  75  75  74
75  76  76  75
76  77  77  76
77  78  78  77
78  79  79  78
79  80  80  79
80  81  81  80
81  82  82  81
82  83  83  82
83  84  84  83
84  85  85  84
85  86  86  85
86  87  87  86
87  88  88  87
88  89  89  88
89  90  90  89
90  91  91  90
91  92  92  91
92  93  93  92
93  94  94  93
94  95  95  94
95  96  96  95
96  97  97  96
97  98  98  97
98  99  99  98
99  100  100  99
100  101  101  100
101  2  2  101
VARIABLES  = "X","Y","Z", "tracer"
ZONE T="1.000000000000e+01s", N=101, E=100, F=FEPOINT, ET=QUADRILATERAL
STRANDID=1, SOLUTIONTIME=1.000000000000e+01
0.000000000000e+00 0.000000000000e+00 0.000000000000e+00 1.000000000000e-20 
0.000000000000e+00 1.000000000000e+00 0.000000000000e+00 2.000000000000e+00 
0.000000000000e+00 1.000000000000e-02 0.000000000000e+00 1.000000000000e-20 
0.000000000000e+00 2.000000000000e-02 0.000000000000e+00 1.000000000000e-20 
0.000000000000e+00 3.000000000000e-02 0.000000000000e+00 1.000000000000e-20 
0.000000000000e+00 4.000000000000e-02 0.000000000000e+00 1.000000000000e-20 
0.000000000000e+00 5.000000000000e-02 0.000000000000e+00 1.000000000000e-20 
0.000000000000e+00 6.000000000000e-02 0.000000000000e+00 1.000000000000e-20 
0.000000000000e+00 7.000000000000e-02 0.000000000000e+00 1.000000000000e-20 
0.000000000000e+00 8.000000000000e-02 0.000000000000e+00 1.000000000000e-20 
0.000000000000e+00 9.000000000000e-02 0.000000000000e+00 1.000000000000e-20 
0.000000000000e+00 1.000000000000e-01 0.000000000000e+00 1.000000000000e-20 
0.000000000000e+00 1.100000000000e-01 0.000000000000e+00 1.000000000000e-20 
0.000000000000e+00 1.200000000000e-01 0.000000000000e+00 1.000000000000e-20 
0.000000000000e+00 1.300000000000e-01 0.000000000000e+00 1.000000000000e-20 
0.000000000000e+00 1.400000000000e-01 0.000000000000e+00 1.000000000000e-20 
0.000000000000e+00 1.500000000000e-01 0.000000000000e+00 1.000000000000e-20 
0.000000000000e+00 1.600000000000e-01 0.000000000000e+00 1.000000000000e-20 
0.000000000000e+00 1.700000000000e-01 0.000000000000e+00 1.000000000000e-20 
0.000000000000e+00 1.800000000000e-01 0.000000000000e+00 1.000000000000e-20 
0.000000000000e+00 1.900000000000e-01 0.000000000000e+00 1.000000000000e-20 
0.000000000000e+00 2.000000000000e-01 0.000000000000e+00 1.000000000000e-20 
0.000000000000e+00 2.100000000000e-01 0.000000000000e+00 1.000000000000e-20 
0.000000000000e+00 2.200000000000e-01 0.000000000000e+00 1.000000000000e-20 
0.000000000000e+00 2.300000000000e-01 0.000000000000e+00 1.000000000000e-20 
0.000000000000e+00 2.400000000000e-01 0.000000000000e+00 1.000000000000e-20 
0.000000000000e+00 2.500000000000e-01 0.000000000000e+00 1.000000000000e-20 
0.000000000000e+00 2.600000000000e-01 0.000000000000e+00 1.000000000000e-20 
0.000000000000e+00 2.700000000000e-01 0.000000000000e+00 1.000000000000e-20 
0.000000000000e+00 2.800000000000e-01 0.000000000000e+00 1.000000000000e-20 
0.000000000000e+00 2.900000000000e-01 0.000000000000e+00 1.000000000000e-20 
0.000000000000e+00 3.000000000000e-01 0.000000000000e+00 1.000000000000e-20 
0.000000000000e+00 3.100000000000e-01 0.000000000000e+00 1.000000000000e-20 
0.000000000000e+00 3.200000000000e-01 0.000000000000e+00 1.000000000000e-20 
0.000000000000e+00 3.300000000000e-01 0.000000000000e+00 1.000000000000e-20 
0.000000000000e+00 3.400000000000e-01 0.000000000000e+00 1.000000000000e-20 
0.000000000000e+00 3.500000000000e-01 0.000000000000e+00 1.000000000000e-20 
0.000000000000e+00 3.600000000000e-01 0.000000000000e+00 1.000000000000e-20 
0.000000000000e+00 3.700000000000e-01 0.000000000000e+00 1.000000000000e-20 
0.000000000000e+00 3.800000000000e-01 0.000000000000e+00 1.000000000000e-20 
0.000000000000e+00 3.900000000000e-01 0.000000000000e+00 1.000000000000e-20 
0.000000000000e+00 4.000000000000e-01 0.000000000000e+00 1.000000000000e-20 
0.000000000000e+00 4.100000000000e-01 0.000000000000e+00 1.000000000000e-20 
0.000000000000e+00 4.200000000000e-01 0.000000000000e+00 1.000000000000e-20 
0.000000000000e+00 4.300000000000e-01 0.000000000000e+00 1.000000000000e-20 
0.000000000000e+00 4.400000000000e-01 0.000000000000e+00 1.000000000000e-20 
0.000000000000e+00 4.500000000000e-01 0.000000000000e+00 1.000000000000e-20 
0.000000000000e+00 4.600000000000e-01 0.000000000000e+00 1.000000000000e-20 
0.000000000000e+00 4.700000000000e-01 0.000000000000e+00 1.000000000000e-20 
0.000000000000e+00 4.800000000000e-01 0.000000000000e+00 1.000000000000e-20 
0.000000000000e+00 4.900000000000e-01 0.000000000000e+00 1.000000000000e-20 
0.000000000000e+00 5.000000000000e-01 0.000000000000e+00 1.000000000000e-20 
0.000000000000e+00 5.100000000000e-01 0.000000000000e+00 1.000000000000e-20 
0.000000000000e+00 5.200000000000e-01 0.000000000000e+00 1.000000000000e-20 
0.000000000000e+00 5.300000000000e-01 0.000000000000e+00 1.000000000000e-20 
0.000000000000e+00 5.400000000000e-01 0.000000000000e+00 1.000000000000e-20 
0.000000000000e+00 5.500000000000e-01 0.000000000000e+00 1.000000000000e-20 
0.000000000000e+00 5.600000000000e-01 0.000000000000e+00 1.000000000000e-20 
0.000000000000e+00 5.700000000000e-01 0.000000000000e+00 1.000000000000e-20 
0.000000000000e+00 5.800000000000e-01 0.000000000000e+00 1.000000000000e-20 
0.000000000000e+00 5.900000000000e-01 0.000000000000e+00 1.000000000000e-20 
0.000000000000e+00 6.000000000000e-01 0.000000000000e+00 1.000000000002e-20 
0.000000000000e+00 6.100000000000e-01 0.000000000000e+00 1.000000000018e-20 
0.000000000000e+00 6.200000000000e-01 0.000000000000e+00 1.000000000136e-20 
0.000000000000e+00 6.300000000000e-01 0.000000000000e+00 1.000000000893e-20 
0.000000000000e+00 6.400000000000e-01 0.000000000000e+00 1.000000005143e-20 
0.000000000000e+00 6.500000000000e-01 0.000000000000e+00 1.000000031455e-20 
0.000000000000e+00 6.600000000000e-01 0.000000000000e+00 1.000000220807e-20 
0.000000000000e+00 6.700000000000e-01 0.000000000000e+00 1.000001604127e-20 
0.000000000000e+00 6.800000000000e-01 0.000000000000e+00 1.000011376077e-20 
0.000000000000e+00 6.900000000000e-01 0.000000000000e+00 1.000078773227e-20 
0.000000000000e+00 7.000000000000e-01 0.000000000000e+00 1.000534995229e-20 
0.000000000000e+00 7.100000000000e-01 0.000000000000e+00 1.003520883644e-20 
0.000000000000e+00 7.200000000000e-01 0.000000000000e+00 1.105952644489e-20 
0.000000000000e+00 7.300000000000e-01 0.000000000000e+00 1.144986165573e-20 
0.000000000000e+00 7.400000000000e-01 0.000000000000e+00 1.340983713050e-20 
0.000000000000e+00 7.500000000000e-01 0.000000000000e+00 1.479255385934e-20 
0.000000000000e+00 7.600000000000e-01 0.000000000000e+00 1.641016584157e-20 
0.000000000000e+00 7.700000000000e-01 0.000000000000e+00 1.764782525815e-20 
0.000000000000e+00 7.800000000000e-01 0.000000000000e+00 2.149928895919e-20 
0.000000000000e+00 7.900000000000e-01 0.000000000000e+00 2.338642667222e-20 
0.000000000000e+00 8.000000000000e-01 0.000000000000e+00 2.418437751027e-20 
0.000000000000e+00 8.100000000000e-01 0.000000000000e+00 4.410579370946e-11 
0.000000000000e+00 8.200000000000e-01 0.000000000000e+00 8.377927022446e-10 
0.000000000000e+00 8.300000000000e-01 0.000000000000e+00 6.268024660047e-09 
0.000000000000e+00 8.400000000000e-01 0.000000000000e+00 4.197957669525e-08 
0.000000000000e+00 8.500000000000e-01 0.000000000000e+00 2.675296127071e-07 
0.000000000000e+00 8.600000000000e-01 0.000000000000e+00 1.626960927349e-06 
0.000000000000e+00 8.700000000000e-01 0.000000000000e+00 9.390180825708e-06 
0.000000000000e+00 8.800000000000e-01 0.000000000000e+00 5.104030184123e-05 
0.000000000000e+00 8.900000000000e-01 0.000000000000e+00 2.588170817705e-04 
0.000000000000e+00 9.000000000000e-01 0.000000000000e+00 1.210450284371e-03 
0.000000000000e+00 9.100000000000e-01 0.000000000000e+00 5.149855800033e-03 
0.000000000000e+00 9.200000000000e-01 0.000000000000e+00 1.960719662224e-02 
0.000000000000e+00 9.300000000000e-01 0.000000000000e+00 6.553901418619e-02 
0.000000000000e+00 9.400000000000e-01 0.000000000000e+00 1.882185056726e-01 
0.000000000000e+00 9.500000000000e-01 0.000000000000e+00 4.537283350331e-01 
0.000000000000e+00 9.600000000000e-01 0.000000000000e+00 8.972825306193e-01 
0.000000000000e+00 9.700000000000e-01 0.000000000000e+00 1.430252732991e+00 
0.000000000000e+00 9.800000000000e-01 0.000000000000e+00 1.838666636655e+00 
0.000000000000e+00 9.900000000000e-01 0.000000000000e+00 1.991362580175e+00 
1  3  3  1
3  4  4  3
4  5  5  4
5  6  6  5
6  7  7  6
7  8  8  7
8  9  9  8
9  10  10  9
10  11  11  10
11  12  12  11
12  13  13  12
13  14  14  13
14  15  15  14
15  16  16  15
16  17  17  16
17  18  18  17
18  19  19  18
19  20  20  19
20  21  21  20
21  22  22  21
22  23  23  22
23  24  24  23
24  25  25  24
25  26  26  25
26  27  27  26
27  28  28  27
28  29  29  28
29  30  30  29
30  31  31  30
31  32  32  31
32  33  33  32
33  34  34  33
34  35  35  34
35  36  36  35
36  37  37  36
37  38  38  37
38  39  39  38
39  40  40  39
40  41  41  40
41  42  42  41
42  43  43  42
43  44  44  43
44  45  45  44
45  46  46  45
46  47  47  46
47  48  48  47
48  49  49  48
49  50  50  49
50  51  51  50
51  52  52  51
52  53  53  52
53  54  54  53
54  55  55  54
55  56  56  55
56  57  57  56
57  58  58  57
58  59  59  58
59  60  60  59
60  61  61  60
61  62  62  61
62  63  63  62
63  64  64  63
64  65  65  64
65  66  66  65
66  67  67  66
67  68  68  67
68  69  69  68
69  70  70  69
70  71  71  70
71  72  72  71
72  73  73  72
73  74  74  73
74  75  75  74
75  76  76  75
76  77  77  76
77  78  78  77
78  79  79  78
79  80  80  79
80  81  81  80
81  82  82  81
82  83  83  82
83  84  84  83
84  85  85  84
85  86  86  85
86  87  87  86
87  88  88  87
88  89  89  88
89  90  90  89
90  91  91  90
91  92  92  91
92  93  93  92
93  94  94  93
94  95  95  94
95  96  96  95
96  97  97  96
97  98  98  97
98  99  99  98
99  100  100  99
100  101  101  100
101  2  2  101
VARIABLES  = "X","Y","Z", "tracer"
ZONE T="2.000000000000e+01s", N=101, E=100, F=FEPOINT, ET=QUADRILATERAL
STRANDID=1, SOLUTIONTIME=2.000000000000e+01
0.000000000000e+00 0.000000000000e+00 0.000000000000e+00 1.000000000000e-20 
0.000000000000e+00 1.000000000000e+00 0.000000000000e+00 2.000000000000e+00 
0.000000000000e+00 1.000000000000e-02 0.000000000000e+00 1.000000000000e-20 
0.000000000000e+00 2.000000000000e-02 0.000000000000e+00 1.000000000000e-20 
0.000000000000e+00 3.000000000000e-02 0.000000000000e+00 1.000000000000e-20 
0.000000000000e+00 4.000000000000e-02 0.000000000000e+00 1.000000000000e-20 
0.000000000000e+00 5.000000000000e-02 0.000000000000e+00 1.000000000000e-20 
0.000000000000e+00 6.000000000000e-02 0.000000000000e+00 1.000000000000e-20 
0.000000000000e+00 7.000000000000e-02 0.000000000000e+00 1.000000000000e-20 
0.000000000000e+00 8.000000000000e-02 0.000000000000e+00 1.000000000000e-20 
0.000000000000e+00 9.000000000000e-02 0.000000000000e+00 1.000000000000e-20 
0.000000000000e+00 1.000000000000e-01 0.000000000000e+00 1.000000000000e-20 
0.000000000000e+00 1.100000000000e-01 0.000000000000e+00 1.000000000000e-20 
0.000000000000e+00 1.200000000000e-01 0.000000000000e+00 1.000000000000e-20 
0.000000000000e+00 1.300000000000e-01 0.000000000000e+00 1.000000000000e-20 
0.000000000000e+00 1.400000000000e-01 0.000000000000e+00 1.000000000000e-20 
0.000000000000e+00 1.500000000000e-01 0.000000000000e+00 1.000000000000e-20 
0.000000000000e+00 1.600000000000e-01 0.000000000000e+00 1.000000000000e-20 
0.000000000000e+00 1.700000000000e-01 0.000000000000e+00 1.000000000000e-20 
0.000000000000e+00 1.800000000000e-01 0.000000000000e+00 1.000000000000e-20 
0.000000000000e+00 1.900000000000e-01 0.000000000000e+00 1.000000000000e-20 
0.000000000000e+00 2.000000000000e-01 0.000000000000e+00 1.000000000000e-20 
0.000000000000e+00 2.100000000000e-01 0.000000000000e+00 1.000000000000e-20 
0.000000000000e+00 2.200000000000e-01 0.000000000000e+00 1.000000000000e-20 
0.000000000000e+00 2.300000000000e-01 0.000000000000e+00 1.000000000000e-20 
0.000000000000e+00 2.400000000000e-01 0.000000000000e+00 1.000000000000e-20 
0.000000000000e+00 2.500000000000e-01 0.000000000000e+00 1.000000000000e-20 
0.000000000000e+00 2.600000000000e-01 0.000000000000e+00 1.000000000000e-20 
0.000000000000e+00 2.700000000000e-01 0.000000000000e+00 1.000000000000e-20 
0.000000000000e+00 2.800000000000e-01 0.000000000000e+00 1.000000000000e-20 
0.000000000000e+00 2.900000000000e-01 0.000000000000e+00 1.000000000000e-20 
0.000000000000e+00 3.000000000000e-01 0.000000000000e+00 1.000000000000e-20 
0.000000000000e+00 3.100000000000e-01 0.000000000000e+00 1.000000000000e-20 
0.000000000000e+00 3.200000000000e-01 0.000000000000e+00 1.000000000000e-20 
0.000000000000e+00 3.300000000000e-01 0.000000000000e+00 1.000000000000e-20 
0.000000000000e+00 3.400000000000e-01 0.000000000000e+00 1.000000000000e-20 
0.000000000000e+00 3.500000000000e-01 0.000000000000e+00 1.000000000000e-20 
0.000000000000e+00 3.600000000000e-01 0.000000000000e+00 1.000000000000e-20 
0.000000000000e+00 3.700000000000e-01 0.000000000000e+00 1.000000000000e-20 
0.000000000000e+00 3.800000000000e-01 0.000000000000e+00 1.000000000000e-20 
0.000000000000e+00 3.900000000000e-01 0.000000000000e+00 1.000000000000e-20 
0.000000000000e+00 4.000000000000e-01 0.000000000000e+00 1.000000000000e-20 
0.000000000000e+00 4.100000000000e-01 0.000000000000e+00 1.000000000000e-20 
0.000000000000e+00 4.200000000000e-01 0.000000000000e+00 1.000000000000e-20 
0.000000000000e+00 4.300000000000e-01 0.000000000000e+00 1.000000000000e-20 
0.000000000000e+00 4.400000000000e-01 0.000000000000e+00 1.000000000000e-20 
0.000000000000e+00 4.500000000000e-01 0.000000000000e+00 1.000000000000e-20 
0.000000000000e+00 4.600000000000e-01 0.000000000000e+00 1.000000000000e-20 
0.000000000000e+00 4.700000000000e-01 0.000000000000e+00 1.000000000000e-20 
0.000000000000e+00 4.800000000000e-01 0.000000000000e+00 1.000000000000e-20 
0.000000000000e+00 4.900000000000e-01 0.000000000000e+00 1.000000000000e-20 
0.000000000000e+00 5.000000000000e-01 0.000000000000e+00 1.000000000000e-20 
0.000000000000e+00 5.100000000000e-01 0.000000000000e+00 1.000000000002e-20 
0.000000000000e+00 5.200000000000e-01 0.000000000000e+00 1.000000000011e-20 
0.000000000000e+00 5.300000000000e-01 0.000000000000e+00 1.000000000075e-20 
0.000000000000e+00 5.400000000000e-01 0.000000000000e+00 1.000000000486e-20 
0.000000000000e+00 5.500000000000e-01 0.000000000000e+00 1.000000003082e-20 
0.000000000000e+00 5.600000000000e-01 0.000000000000e+00 1.000000018189e-20 
0.000000000000e+00 5.700000000000e-01 0.000000000000e+00 1.000000099658e-20 
0.000000000000e+00 5.800000000000e-01 0.000000000000e+00 1.000000551472e-20 
0.000000000000e+00 5.900000000000e-01 0.000000000000e+00 1.000003149289e-20 
0.000000000000e+00 6.000000000000e-01 0.000000000000e+00 1.000017522853e-20 
0.000000000000e+00 6.100000000000e-01 0.000000000000e+00 1.000092729378e-20 
0.000000000000e+00 6.200000000000e-01 0.000000000000e+00 1.000470847199e-20 
0.000000000000e+00 6.300000000000e-01 0.000000000000e+00 1.002321107407e-20 
0.000000000000e+00 6.400000000000e-01 0.000000000000e+00 1.011325315457e-20 
0.000000000000e+00 6.500000000000e-01 0.000000000000e+00 1.057428634884e-20 
0.000000000000e+00 6.600000000000e-01 0.000000000000e+00 1.245280545223e-20 
0.000000000000e+00 6.700000000000e-01 0.000000000000e+00 1.402707414272e-20 
0.000000000000e+00 6.800000000000e-01 0.000000000000e+00 1.649902735138e-20 
0.000000000000e+00 6.900000000000e-01 0.000000000000e+00 1.847346392204e-20 
0.000000000000e+00 7.000000000000e-01 0.000000000000e+00 2.101857797386e-20 
0.000000000000e+00 7.100000000000e-01 0.000000000000e+00 2.458728744242e-20 
0.000000000000e+00 7.200000000000e-01 0.000000000000e+00 2.868556332871e-20 
0.000000000000e+00 7.300000000000e-01 0.000000000000e+00 2.969799233873e-20 
0.000000000000e+00 7.400000000000e-01 0.000000000000e+00 4.160684635943e-10 
0.000000000000e+00 7.500000000000e-01 0.000000000000e+00 2.678540876385e-09 
0.000000000000e+00 7.600000000000e-01 0.000000000000e+00 1.394391166970e-08 
0.000000000000e+00 7.700000000000e-01 0.000000000000e+00 6.783627985721e-08 
0.000000000000e+00 7.800000000000e-01 0.000000000000e+00 3.151756239289e-07 
0.000000000000e+00 7.900000000000e-01 0.000000000000e+00 1.400625626188e-06 
0.000000000000e+00 8.000000000000e-01 0.000000000000e+00 5.937027837316e-06 
0.000000000000e+00 8.100000000000e-01 0.000000000000e+00 2.391694138187e-05 
0.000000000000e+00 8.200000000000e-01 0.000000000000e+00 9.118652722196e-05 
0.000000000000e+00 8.300000000000e-01 0.000000000000e+00 3.275431419025e-04 
0.000000000000e+00 8.400000000000e-01 0.000000000000e+00 1.102978672418e-03 
0.000000000000e+00 8.500000000000e-01 0.000000000000e+00 3.463323606620e-03 
0.000000000000e+00 8.600000000000e-01 0.000000000000e+00 1.008159054395e-02 
0.000000000000e+00 8.700000000000e-01 0.000000000000e+00 2.703820506347e-02 
0.000000000000e+00 8.800000000000e-01 0.000000000000e+00 6.637110544082e-02 
0.000000000000e+00 8.900000000000e-01 0.000000000000e+00 1.480982993345e-01 
0.000000000000e+00 9.000000000000e-01 0.000000000000e+00 2.983151475372e-01 
0.000000000000e+00 9.100000000000e-01 0.000000000000e+00 5.388760374866e-01 
0.000000000000e+00 9.200000000000e-01 0.000000000000e+00 8.682308961054e-01 
0.000000000000e+00 9.300000000000e-01 0.000000000000e+00 1.244359882303e+00 
0.000000000000e+00 9.400000000000e-01 0.000000000000e+00 1.590738814155e+00 
0.000000000000e+00 9.500000000000e-01 0.000000000000e+00 1.835446532890e+00 
0.000000000000e+00 9.600000000000e-01 0.000000000000e+00 1.957734042260e+00 
0.000000000000e+00 9.700000000000e-01 0.000000000000e+00 1.994835490524e+00 
0.000000000000e+00 9.800000000000e-01 0.000000000000e+00 1.999621117300e+00 
0.000000000000e+00 9.900000000000e-01 0.000000000000e+00 1.999888881054e+00 
1  3  3  1
3  4  4  3
4  5  5  4
5  6  6  5
6  7  7  6
7  8  8  7
8  9  9  8
9  10  10  9
10  11  11  10
11  12  12  11
12  13  13  12
13  14  14  13
14  15  15  14
15  16  16  15
16  17  17  16
17  18  18  17
18  19  19  18
19  20  20  19
20  21  21  20
21  22  22  21
22  23  23  22
23  24  24  23
24  25  25  24
25  26  26  25
26  27  27  26
27  28  28  27
28  29  29  28
29  30  30  29
30  31  31  30
31  32  32  31
32  33  33  32
33  34  34  33
34  35  35  34
35  36  36  35
36  37  37  36
37  38  38  37
38  39  39  38
39  40  40  39
40  41  41  40
41  42  42  41
42  43  43  42
43  44  44  43
44  45  45  44
45  46  46  45
46  47  47  46
47  48  48  47
48  49  49  48
49  50  50  49
50  51  51  50
51  52  52  51
52  53  53  52
53  54  54  53
54  55  55  54
55  56  56  55
56  57  57  56
57  58  58  57
58  59  59  58
59  60  60  59
60  61  61  60
61  62  62  61
62  63  63  62
63  64  64  63
64  65  65  64
65  66  66  65
66  67  67  66
67  68  68  67
68  69  69  68
69  70  70  69
70  71  71  70
71  72  72  71
72  73  73  72
73  74  74  73
74  75  75  74
75  76  76  75
76  77  77  76
77  78  78  77
78  79  79  78
79  80  80  79
80  81  81  80
81  82  82  81
82  83  83  82
83  84  84  83
84  85  85  84
85  86  86  85
86  87  87  86
87  88  88  87
88  89  89  88
89  90  90  89
90  91  91  90
91  92  92  91
92  93  93  92
93  94  94  93
94  95  95  94
95  96  96  95
96  97  97  96
97  98  98  97
98  99  99  98
99  100  100  99
100  101  101  100
101  2  2  101
VARIABLES  = "X","Y","Z", "tracer"
ZONE T="3.000000000000e+01s", N=101, E=100, F=FEPOINT, ET=QUADRILATERAL
STRANDID=1, SOLUTIONTIME=3.000000000000e+01
0.000000000000e+00 0.000000000000e+00 0.000000000000e+00 1.000000000000e-20 
0.000000000000e+00 1.000000000000e+00 0.000000000000e+00 2.000000000000e+00 
0.000000000000e+00 1.000000000000e-02 0.000000000000e+00 1.000000000000e-20 
0.000000000000e+00 2.000000000000e-02 0.000000000000e+00 1.000000000000e-20 
0.000000000000e+00 3.000000000000e-02 0.000000000000e+00 1.000000000000e-20 
0.000000000000e+00 4.000000000000e-02 0.000000000000e+00 1.000000000000e-20 
0.000000000000e+00 5.000000000000e-02 0.000000000000e+00 1.000000000000e-20 
0.000000000000e+00 6.000000000000e-02 0.000000000000e+00 1.000000000000e-20 
0.000000000000e+00 7.000000000000e-02 0.000000000000e+00 1.000000000000e-20 
0.000000000000e+00 8.000000000000e-02 0.000000000000e+00 1.000000000000e-20 
0.000000000000e+00 9.000000000000e-02 0.000000000000e+00 1.000000000000e-20 
0.000000000000e+00 1.000000000000e-01 0.000000000000e+00 1.000000000000e-20 
0.000000000000e+00 1.100000000000e-01 0.000000000000e+00 1.000000000000e-20 
0.000000000000e+00 1.200000000000e-01 0.000000000000e+00 1.000000000000e-20 
0.000000000000e+00 1.300000000000e-01 0.000000000000e+00 1.000000000000e-20 
0.000000000000e+00 1.400000000000e-01 0.000000000000e+00 1.000000000000e-20 
0.000000000000e+00 1.500000000000e-01 0.000000000000e+00 1.000000000000e-20 
0.000000000000e+00 1.600000000000e-01 0.000000000000e+00 1.000000000000e-20 
0.000000000000e+00 1.700000000000e-01 0.000000000000e+00 1.000000000000e-20 
0.000000000000e+00 1.800000000000e-01 0.000000000000e+00 1.000000000000e-20 
0.000000000000e+00 1.900000000000e-01 0.000000000000e+00 1.000000000000e-20 